# vtk DataFile Version 2.0
Exported by GetFEM
ASCII
DATASET UNSTRUCTURED_GRID
POINTS 9432 float
 -0.555486 10 -10.9621 -1.31574 10 -9.91306 -6.36971e-08 10 -10 -0.607406 9.78564 -11.0521 -1.12604 9.58403 -11.9504 -1.86529 10 -10.7875 -1.14112 9.16806 -11.9765 -2.61962 10 -9.65078 -1.11097 10 -11.9243
 9.77123 10 5 9.24284 10 3.81706 8.66025 10 5 9.87507 9.78564 5 10.9123 9.58403 5 10.2749 10 3.77837 10.9425 9.16806 5 9.66763 10 2.55674 10.8822 10 5
 -9.21574 10 5.96213 -7.92709 10 6.096 -8.66025 10 5 -9.26766 9.78564 6.05206 -9.7863 9.58403 6.95036 -8.40962 10 7.00915 -9.80137 9.16806 6.97647 -7.04802 10 7.09405 -9.77123 10 6.92426
 -0.5557 10 10.9625 -1.86551 10 10.7879 -1.1114 10 11.925 -1.12697 9.58281 11.952 -0.608289 9.78499 11.0536 -1.31574 10 9.91306 -1.14254 9.16563 11.9789 -2.61962 10 9.65078 -6.36971e-08 10 10
 -9.21595 10 -5.9625 -8.40983 10 -7.00952 -9.77165 10 -6.925 -9.78723 9.58281 -6.95197 -9.26854 9.78499 -6.05359 -7.92709 10 -6.096 -9.8028 9.16563 -6.97894 -7.04802 10 -7.09405 -8.66025 10 -5
 9.77165 10 -5 10.2753 10 -3.77837 10.8831 10 -5 10.9142 9.58281 -5 9.87683 9.78499 -5 9.24284 10 -3.81706 10.9453 9.16563 -5 9.66763 10 -2.55674 8.66025 10 -5
 -1.14112 9.16806 -11.9765 -1.7081 9.58403 -12.9585 -1.12604 9.58403 -11.9504 -1.69303 10 -12.9324 -2.949 10 -12.8794 -2.36694 10 -11.8712 -2.27509 10 -13.9406 -3.62291 10 -11.8182 -1.11097 10 -11.9243
 10.9425 9.16806 5 12.0765 9.58403 5 10.9123 9.58403 5 12.0463 10 5 12.6284 10 3.88578 11.4643 10 3.88578 13.2104 10 5 12.0463 10 2.77157 10.8822 10 5
 -9.80137 9.16806 6.97647 -10.3684 9.58403 7.95852 -9.7863 9.58403 6.95036 -10.3533 10 7.93242 -9.67938 10 8.9936 -9.09732 10 7.98544 -10.9353 10 8.94057 -8.42341 10 9.04663 -9.77123 10 6.92426
 -1.1114 10 11.925 -2.36744 10 11.872 -1.69349 10 12.9332 -1.12697 9.58281 11.952 -1.70907 9.58281 12.9602 -2.94953 10 12.8802 -2.27559 10 13.9414 -3.62348 10 11.8189 -1.14254 9.16563 11.9789
 -9.77165 10 -6.925 -9.09771 10 -7.98625 -10.3537 10 -7.93322 -9.78723 9.58281 -6.95197 -10.3693 9.58281 -7.96019 -9.6798 10 -8.99446 -10.9358 10 -8.94143 -8.42376 10 -9.04749 -9.8028 9.16563 -6.97894
 10.8831 10 -5 11.4651 10 -3.88572 12.0472 10 -5 10.9142 9.58281 -5 12.0784 9.58281 -5 12.6293 10 -3.88572 13.2114 10 -5 12.0472 10 -2.77144 10.9453 9.16563 -5
 -2.36694 10 -11.8712 -3.12126 10 -10.7345 -1.86529 10 -10.7875 -3.62291 10 -11.8182 -2.61962 10 -9.65078 -1.11097 10 -11.9243
 11.4643 10 3.88578 10.857 10 2.66415 10.2749 10 3.77837 12.0463 10 2.77157 9.66763 10 2.55674 10.8822 10 5
 -9.09732 10 7.98544 -7.73571 10 8.07034 -8.40962 10 7.00915 -8.42341 10 9.04663 -7.04802 10 7.09405 -9.77123 10 6.92426
 -1.1114 10 11.925 -1.86551 10 10.7879 -2.36744 10 11.872 -3.12155 10 10.7349 -3.62348 10 11.8189 -2.61962 10 9.65078
 -9.77165 10 -6.925 -8.40983 10 -7.00952 -9.09771 10 -7.98625 -7.73589 10 -8.07077 -8.42376 10 -9.04749 -7.04802 10 -7.09405
 10.8831 10 -5 10.2753 10 -3.77837 11.4651 10 -3.88572 10.8574 10 -2.66409 12.0472 10 -2.77144 9.66763 10 -2.55674
 40.1464 2.94 -5 39.0514 2.51537 -5 39.4889 3.57001 -5 38.3939 3.14538 -5 37.9564 2.09073 -5 38.8314 4.20002 -5
 40.1464 2.94 -5 39.4889 3.57001 -5 40.5942 3.99103 -5 39.9367 4.62104 -5 38.8314 4.20002 -5 41.0421 5.04206 -5
 -15.1488 4.13841 -36.2384 -15.4817 3.46495 -36.815 -15.6698 4.59023 -37.1409 -16.0027 3.91678 -37.7175 -15.8145 2.7915 -37.3916 -16.1909 5.04206 -38.0435
 -15.8145 2.7915 37.3916 -15.4816 3.46495 36.815 -16.0027 3.91678 37.7175 -15.6698 4.59023 37.1409 -15.1488 4.13841 36.2384 -16.1909 5.04206 38.0435
 -23.7742 4.0403 31.1781 -24.1315 3.44569 31.7969 -24.3127 4.54118 32.1108 -24.6699 3.94657 32.7296 -24.4887 2.85109 32.4157 -24.8512 5.04206 33.0435
 -24.4887 2.85109 -32.4157 -24.1315 3.44569 -31.7969 -24.6699 3.94657 -32.7296 -24.3127 4.54118 -32.1108 -23.7742 4.0403 -31.1781 -24.8512 5.04206 -33.0435
 38.8512 4.31551 5 39.4458 3.60147 5 39.9466 4.67878 5 40.5412 3.96475 5 40.0404 2.88744 5 41.0421 5.04206 5
 3.55154 4.78487 -12.5055 2.56601 4.86036 -12.7442 3.09804 5.89243 -12.6255 2.10053 5.96793 -12.8292 1.55699 4.93585 -12.9064 2.63635 7 -12.7182
 -12.6058 4.78487 3.17701 -12.3198 4.86036 4.14988 -12.483 5.89243 3.62975 -12.1607 5.96793 4.59547 -11.9558 4.93585 5.10482 -12.3324 7 4.07594
 2.63489 7 12.7185 2.09889 5.96808 12.8294 3.09681 5.89248 12.6258 2.56484 4.86055 12.7445 1.55541 4.93615 12.9066 3.55077 4.78495 12.5057
 -12.332 7 -4.07735 -12.1601 5.96808 -4.59703 -12.4826 5.89248 -3.63096 -12.3195 4.86055 -4.15102 -11.9552 4.93615 -5.10629 -12.6056 4.78495 -3.17778
 9.05314 4.78457 9.32956 9.75286 4.85955 8.59545 9.3837 5.89229 8.99701 10.0591 5.96726 8.23501 10.398 4.93452 7.80267 9.69483 7 8.64363
 9.69583 7 -8.64252 10.0599 5.96682 -8.23399 9.38429 5.89223 -8.99639 9.75359 4.85905 -8.59462 10.3989 4.93363 -7.80143 9.05361 4.78446 -9.3291
 0.456741 7 12.9854 1.00776 5.96808 12.9609 1.54631 7 12.8974 2.09889 5.96808 12.8294 1.55541 4.93615 12.9066 2.63489 7 12.7185
 -11.4741 7 -6.09717 -11.7283 5.96808 -5.6077 -11.9427 7 -5.10957 -12.1601 5.96808 -4.59703 -11.9552 4.93615 -5.10629 -12.332 7 -4.07735
 2.63635 7 -12.7182 2.10053 5.96793 -12.8292 1.54783 7 -12.8972 1.00927 5.96793 -12.9608 1.55699 4.93585 -12.9064 0.458283 7 -12.9854
 -12.3324 7 4.07594 -12.1607 5.96793 4.59547 -11.9433 7 5.10817 -11.729 5.96793 5.60633 -11.9558 4.93585 5.10482 -11.4748 7 6.09581
 9.69483 7 8.64363 10.0591 5.96726 8.23501 10.3946 7 7.79021 10.7192 5.96726 7.35524 10.398 4.93452 7.80267 11.016 7 6.89038
 11.0169 7 -6.88907 10.7202 5.96682 -7.35377 10.3955 7 -7.78899 10.0599 5.96682 -8.23399 10.3989 4.93363 -7.80143 9.69583 7 -8.64252
 -12.8359 7 2.02 -12.7375 5.89243 2.59939 -12.6264 7 3.05279 -12.483 5.89243 3.62975 -12.6058 4.78487 3.17701 -12.3324 7 4.07594
 4.66859 7 -12.1262 4.11759 5.89243 -12.3307 3.66938 7 -12.4611 3.09804 5.89243 -12.6255 3.55154 4.78487 -12.5055 2.63635 7 -12.7182
 -12.332 7 -4.07735 -12.4826 5.89248 -3.63096 -12.6261 7 -3.05385 -12.7373 5.89248 -2.60017 -12.6056 4.78495 -3.17778 -12.8358 7 -2.02067
 2.63489 7 12.7185 3.09681 5.89248 12.6258 3.66834 7 12.4614 4.11685 5.89248 12.3309 3.55077 4.78495 12.5057 4.66796 7 12.1265
 8.16502 7 10.1081 8.61813 5.89229 9.73282 8.95521 7 9.41004 9.3837 5.89229 8.99701 9.05314 4.78457 9.32956 9.69483 7 8.64363
 9.69583 7 -8.64252 9.38429 5.89223 -8.99639 8.95599 7 -9.40928 8.61867 5.89223 -9.73234 9.05361 4.78446 -9.3291 8.16555 7 -10.1077
 -3.50203 10 -16.0657 -4.58558 10 -16.0333 -4.2123 10 -14.9472 -5.29585 10 -14.9148 -5.66914 10 -16.0009 -4.92257 10 -13.8288
 -12.1623 10 11.0657 -11.5925 10 11.9879 -10.8385 10 11.1216 -10.2687 10 12.0438 -11.0226 10 12.9101 -9.5148 10 11.1775
 15.6643 10 5 16.178 10 4.04542 15.0508 10 3.82566 15.5646 10 2.87108 16.6918 10 3.09084 14.4374 10 2.65133
 -23.7742 4.0403 31.1781 -23.5462 2.81249 30.7832 -24.1315 3.44569 31.7969 -23.9034 2.21789 31.402 -23.3182 1.58469 30.3882 -24.4887 2.85109 32.4157
 -24.4887 2.85109 -32.4157 -23.9035 2.21789 -31.402 -24.1315 3.44569 -31.7969 -23.5462 2.81249 -30.7832 -23.3182 1.58469 -30.3882 -23.7742 4.0403 -31.1781
 38.8512 4.31551 5 38.2181 3.14397 5 39.4458 3.60147 5 38.8127 2.42994 5 37.585 1.97244 5 40.0404 2.88744 5
 -4.15041 10 -17.1887 -4.51237 8.97672 -17.8157 -4.79879 10 -18.3117 -5.23396 10 -17.1563 -4.58558 10 -16.0333 -3.86399 8.97672 -16.6926 -5.66914 10 -16.0009 -4.22595 7.95344 -17.3196 -3.50203 10 -16.0657
 16.9611 10 5 17.685 8.97672 5 18.2578 10 5 17.4748 10 4.04542 16.178 10 4.04542 16.3882 8.97672 5 16.6918 10 3.09084 17.1121 7.95344 5 15.6643 10 5
 -12.8107 10 12.1887 -13.1726 8.97672 12.8157 -13.459 10 13.3117 -12.2408 10 13.1109 -11.5925 10 11.9879 -12.5242 8.97672 11.6926 -11.0226 10 12.9101 -12.8862 7.95344 12.3196 -12.1623 10 11.0657
 -15.1488 4.13841 -36.2384 -14.9033 2.86155 -35.8133 -15.4817 3.46495 -36.815 -15.2362 2.1881 -36.3899 -14.6579 1.58469 -35.3882 -15.8145 2.7915 -37.3916
 -15.8145 2.7915 37.3916 -15.2362 2.1881 36.3899 -15.4816 3.46495 36.815 -14.9033 2.86155 35.8133 -14.6579 1.58469 35.3882 -15.1488 4.13841 36.2384
 7.32952 0 -10.7344 5.75 0 -9.95929 6.5 0 -11.2583 6.5 1.13303 -11.2583 7.33477 1.13303 -10.7332 6.548 0 -9.41738 6.5 2.26607 -11.2583 5 0 -8.66025 8.13697 0 -10.1309
 7.32952 0 10.7344 6.549 0 9.41563 8.13697 0 10.1309 7.33477 1.13303 10.7332 6.5 1.13303 11.2583 5.75 0 9.95929 6.5 2.26607 11.2583 5 0 8.66025 6.5 0 11.2583
 5.63021 0 -11.7154 4.87834 0 -10.3799 4.70235 0 -12.1133 5.62646 1.13303 -11.7193 6.5 1.13303 -11.2583 5.75 0 -9.95929 6.5 2.26607 -11.2583 5 0 -8.66025 6.5 0 -11.2583
 -12.9609 0 -0.98179 -11.5 0 -4.17006e-15 -13 0 -4.87067e-15 -13 1.13303 -4.87067e-15 -12.9625 1.13303 -0.987013 -11.4295 0 -0.963449 -13 2.26607 -4.87067e-15 -10 0 -3.46945e-15 -12.8416 0 -1.98432
 -12.9609 0 0.98179 -11.4285 0 0.965198 -12.8416 0 1.98432 -12.9625 1.13303 0.987013 -13 1.13303 -4.87067e-15 -11.5 0 -4.17006e-15 -13 2.26607 -4.87067e-15 -10 0 -3.46945e-15 -13 0 -4.87067e-15
 5.63021 0 11.7154 5.75 0 9.95929 6.5 0 11.2583 6.5 1.13303 11.2583 5.62646 1.13303 11.7193 4.88037 0 10.3799 6.5 2.26607 11.2583 5 0 8.66025 4.70235 0 12.1133
 8.16502 7 10.1081 7.2354 8.14132 10.4773 7.34406 7 10.7244 6.39364 8.10956 11.0741 6.05647 9.12967 10.4901 6.5 7 11.2583
 6.5 7 -11.2583 6.39364 8.10956 -11.0741 7.34433 7 -10.7242 7.23657 8.14161 -10.4763 6.05647 9.12967 -10.4901 8.16555 7 -10.1077
 -12.8359 7 2.02 -12.6911 8.14148 1.02892 -12.9595 7 0.999387 -12.7873 8.10956 -4.80917e-15 -12.1129 9.12967 -4.5088e-15 -13 7 -4.87067e-15
 4.66859 7 -12.1262 5.45449 8.14148 -11.5053 5.61426 7 -11.723 6.39364 8.10956 -11.0741 6.05647 9.12967 -10.4901 6.5 7 -11.2583
 -13 7 -4.87067e-15 -12.7873 8.10956 -4.80917e-15 -12.9595 7 -0.999719 -12.6909 8.14178 -1.03042 -12.1129 9.12967 -4.5088e-15 -12.8358 7 -2.02067
 6.5 7 11.2583 6.39364 8.10956 11.0741 5.61396 7 11.7231 5.45306 8.14178 11.5058 6.05647 9.12967 10.4901 4.66796 7 12.1265
[...]
POINT_DATA 9432


SCALARS Von_Mises_Stress float 1
LOOKUP_TABLE default
 49.325 46.5032 67.4961 50.7786 32.6075 28.3321 34.0611 25.5103 31.1539 49.8807 47.0841 68.7791 51.4669 32.5685 28.1857 34.1547 25.3891 30.9824 49.4112 46.6229 67.6561 50.8719 32.627 28.378 34.0878 25.5896 31.1663 43.6133 28.2361 30.8282 32.3706 45.1556 41.0211 33.9129 25.6439 56.3983 44.7384 28.1093 30.8473 32.4722 46.3634 42.0005 34.0972 25.3714 58.6295 43.885 27.8207 30.8048 32.4201 45.5002 40.9008 34.0353 24.8365 56.9651 31.8393 28.2412 31.9801 28.382 21.4336 25.1725 24.6431 18.2241 32.1209 31.9277 28.3178 31.9954 28.3855 21.4149 25.0925 24.7079 18.1219 32.063 31.8554 28.2467 31.9959 28.3872 21.4226 25.1718 24.638 18.2073 32.1363 31.9925 25.0903 28.2958 31.8513 28.1545 21.3935 24.599 18.188 31.71 32.0064 25.1228 28.3112 31.8957 28.2005 21.4276 24.616 18.2392 31.785 32.0813 25.228 28.3175 31.949 28.1852 21.4642 24.5537 18.3748 31.8167 25.3372 24.0017 27.3871 21.9517 26.0516 28.7227 25.1919 23.8764 27.2337 21.8346 25.9182 28.5491 25.3445 23.9831 27.4026 21.9251 26.0412 28.764 28.8248 26.4449 25.2635 22.8836 21.7023 24.0649 28.8022 26.5042 25.2852 22.9872 21.7682 24.2063 28.8377 26.4989 25.2699 22.9312 21.7021 24.1602 6.46618 4.80644 6.4894 4.82966 3.1467 6.51262 6.45675 6.48885 8.76773 8.79984 6.52096 11.0787 6.64548 6.59703 8.781 8.73254 6.54857 10.9165 6.56207 6.62988 8.74848 8.8163 6.69769 10.9349 6.37742 6.53292 8.6475 8.803 6.68842 10.9176 6.58286 6.47887 8.73988 8.63589 6.37488 10.8969 6.75496 6.52376 8.89729 8.66609 6.29256 11.0396 3.70587 4.95717 4.38315 5.63446 6.20848 5.06044 3.67899 4.92954 4.3278 5.57834 6.18009 4.9766 4.94019 5.50448 4.29211 4.85641 6.06878 3.64403 4.93648 5.5854 4.3031 4.95201 6.23431 3.66972 3.55189 4.87379 4.09267 5.41457 6.19569 4.63344 4.89393 5.52411 4.30857 4.93875 6.15429 3.72321 8.27625 7.32217 6.59866 5.64459 6.3681 4.92108 8.33177 7.38416 6.65653 5.70892 6.43655 4.98129 5.0386 5.77262 6.682 7.41602 6.50663 8.3254 4.8834 5.63493 6.56013 7.31166 6.38646 8.23685 4.7772 5.59651 6.57916 7.39847 6.41582 8.38113 7.88797 7.08378 6.36557 5.56139 6.2796 4.84318 3.67038 3.58787 4.26446 4.18196 3.50537 4.85855 3.73041 3.60426 4.28015 4.154 3.47812 4.82988 4.79457 4.1296 4.23121 3.56624 3.46462 3.66785 4.79782 4.11324 4.28117 3.59659 3.42867 3.76451 3.72259 3.58026 4.19189 4.04955 3.43792 4.66118 4.8749 4.19281 4.28041 3.59832 3.51073 3.68591 19.3577 18.6685 20.123 19.4338 17.9792 20.8883 19.3527 18.6665 20.1213 19.4351 17.9803 20.8899 19.3582 18.667 20.1052 19.414 17.9758 20.8521 6.39337 4.59371 6.53905 4.7394 2.79406 6.68474 6.5737 4.79166 6.46976 4.68772 3.00961 6.36582 6.7304 4.7731 6.54226 4.58496 2.8158 6.35413 17.0825 13.6312 15.1784 16.677 18.5811 15.5352 18.1757 12.0839 18.9865 17.0805 13.6358 15.1822 16.6806 18.5788 15.5341 18.1789 12.0894 18.9788 17.0802 13.6326 15.1777 16.6779 18.5804 15.5351 18.1781 12.0875 18.9827 6.63602 4.85049 6.57394 4.78841 3.06496 6.51186 6.57583 4.86591 6.62095 4.91104 3.15599 6.66608 6.84686 9.22544 6.78452 3.9889 4.05124 9.28778 1.19329 11.6664 6.9092 6.86865 9.32006 6.94279 4.0743 4.00015 9.24591 1.2058 11.6973 6.7945 6.81387 9.26481 6.85062 4.01253 3.97577 9.22806 1.17443 11.679 6.77711 6.84416 9.2491 6.77635 3.95961 4.02742 9.31691 1.14287 11.7219 6.91197 6.8105 9.28341 6.85167 3.99926 3.9581 9.24225 1.14686 11.7152 6.76934 6.82379 9.24957 6.79068 3.99781 4.03091 9.28267 1.20493 11.7085 6.85689 3.81521 5.34754 3.61383 5.14617 6.87987 3.41246 3.44052 5.18324 3.66769 5.41041 6.92595 3.89486 3.93194 5.4532 3.69781 5.21908 6.97447 3.46368 3.83102 5.38497 3.63652 5.19046 6.93892 3.44201 3.44776 5.20301 3.64103 5.39629 6.95826 3.83431 3.45514 5.169 3.6104 5.32427 6.88287 3.76566 7.80743 10.0913 8.47568 10.5823 9.914 9.42303 12.6888 11.7069 7.13917 7.83804 10.077 8.49811 10.733 10.0729 9.41698 12.9678 11.656 7.17797 7.83834 10.0755 8.50142 10.7533 10.0902 9.41243 13.0051 11.6496 7.17527 7.71646 9.46964 7.11221 9.7084 10.3126 10.0739 12.3046 11.8271 8.32071 7.63956 9.41137 7.11418 9.66114 10.1865 9.93675 12.2081 11.7086 8.16495 7.68987 9.46146 7.09568 9.69406 10.2883 10.0557 12.2924 11.8272 8.28407 24.2611 16.7639 26.2658 18.7685 9.26663 28.2705 23.7722 16.6844 25.8149 18.727 9.59646 27.8576 25.2515 18.4737 26.9913 20.2135 11.6958 28.7311 5.94278 5.73974 4.98994 4.7869 5.5367 4.03711 6.09953 6.13304 5.0968 5.13031 6.16656 4.09406 5.81566 5.85289 4.84812 4.88536 5.89013 3.88059 5.55102 5.699 4.71175 4.85974 5.84698 3.87249 5.85383 5.96052 4.87829 4.98499 6.06722 3.90276 5.98359 5.99529 5.00051 5.01221 6.00698 4.01744 28.2605 18.7868 25.4838 16.0102 9.31313 22.7072 28.208 18.6905 25.465 15.9475 9.17305 22.7219 28.0173 18.3601 25.1223 15.4651 8.70288 22.2273 7.75599 7.62573 9.9648 9.83454 7.49546 12.1736 7.7594 7.61793 9.9992 9.85774 7.47647 12.239 12.5004 10.0838 10.0959 7.67926 7.6672 7.69133 7.77335 7.61708 9.99047 9.8342 7.46082 12.2076 12.5227 10.0955 10.1107 7.68355 7.66837 7.69873 12.416 10.0035 10.0584 7.64592 7.59104 7.70081 10.5056 9.5065 12.6436 11.6445 8.50735 14.7816 10.4997 9.49778 12.6606 11.6587 8.49589 14.8216 10.3812 9.37811 12.558 11.5549 8.37501 14.7347 14.7189 11.495 12.5843 9.36034 8.27102 10.4497 14.7436 11.552 12.6267 9.4351 8.36033 10.5099 14.6264 11.6772 12.5561 9.60679 8.72792 10.4857 6.0981 5.12812 8.09275 7.12278 4.15815 10.0874 6.15541 5.18735 8.16244 7.19438 4.21929 10.1695 10.0144 7.09341 8.0704 5.14944 4.17245 6.12643 9.9554 7.0363 7.97862 5.05952 4.1172 6.00185 5.89062 5.04542 7.91618 7.07098 4.20022 9.94175 10.2099 7.31397 8.32906 5.43309 4.418 6.44818 25.3818 18.6936 26.173 19.4848 12.0054 26.9641 25.5166 18.7536 26.2312 19.4682 11.9906 26.9458 25.0939 18.4145 25.9577 19.2784 11.7352 26.8215 6.83346 9.60891 6.91833 4.77623 4.69136 9.52404 2.63413 12.2995 6.74859 6.82635 9.60368 6.91479 4.75854 4.6701 9.51524 2.60229 12.2926 6.73791 6.8637 9.49708 6.7264 4.67925 4.81655 9.63438 2.63209 12.2678 7.001 6.84465 9.55116 6.76049 4.65489 4.73904 9.63531 2.54929 12.3418 6.9288 6.82273 9.45927 6.69559 4.68338 4.81052 9.58641 2.67118 12.2229 6.94987 6.88632 9.72144 7.03757 4.80655 4.65529 9.57018 2.57552 12.4053 6.73507 26.4404 19.303 25.3341 18.1967 12.1656 24.2278 26.9116 19.3705 25.8412 18.3001 11.8293 24.7709 27.2305 20.0397 25.898 18.7072 12.8488 24.5656 3.29649 1.84331 3.56929 2.1161 0.390119 3.84209 3.96439 2.19606 3.64842 1.88009 0.427731 3.33246 3.35491 1.91882 3.68724 2.25115 0.482733 4.01957 3.33414 1.88788 3.62114 2.17489 0.441635 3.90815 3.8956 2.21013 3.61712 1.93165 0.52467 3.33863 3.79095 2.09431 3.56491 1.86827 0.397665 3.33887 18.6681 15.6498 15.4971 12.4787 12.326 12.6314 18.6668 15.6367 15.4943 12.4643 12.3218 12.6067 18.66 15.6306 15.4953 12.4659 12.3306 12.6012 6.68852 6.48246 4.01405 5.21685 7.89132 9.15693 6.41966 8.95086 9.36299 16.9879 11.827 19.6734 20.1166 17.4312 9.14146 20.5599 3.98051 14.3024 16.9992 11.8192 19.6629 20.0927 17.429 9.15553 20.5225 3.97556 14.3355 6.68531 6.457 3.9674 5.18541 7.90333 9.17492 6.40342 8.9466 9.40323 6.67858 6.47654 3.99283 5.15085 7.83659 9.16229 6.30887 8.96026 9.36432 16.9774 11.829 19.6658 20.0879 17.3996 9.14066 20.5101 3.99223 14.2891 6.7119 9.19627 9.51737 7.9605 5.15502 6.39079 6.40363 8.87516 3.90642 6.75394 9.21019 9.55785 7.99144 5.18753 6.40628 6.42504 8.86253 3.95002 16.9897 9.14658 14.2882 17.3942 20.0958 11.8482 20.5003 4.005 19.6913 6.75344 9.21471 9.55782 7.92427 5.11989 6.41033 6.29072 8.8716 3.94905 16.9914 9.14356 14.3061 17.3903 20.0756 11.8288 20.4744 3.98098 19.6767 16.9783 9.14334 14.2811 17.3673 20.0644 11.8405 20.4534 4.00554 19.6754 3.8893 5.84904 3.76998 5.72973 7.80879 3.65067 3.97284 5.85812 3.79598 5.68126 7.7434 3.61912 3.9839 5.98573 3.88414 5.88597 7.98757 3.78438 3.66008 5.76557 3.80211 5.9076 7.87106 3.94413 3.68985 5.83146 3.8005 5.94212 7.97308 3.91116 10.9024 10.6389 11.0393 8.90168 8.76469 10.5019 6.76402 10.2385 10.7654 10.9245 10.5593 10.8027 8.73397 8.85573 10.681 6.66524 10.3158 11.0462 3.75084 5.80568 3.94881 6.00366 7.86053 4.14678 10.9031 8.81586 10.9865 8.89925 6.72858 11.0699 27.9401 29.1129 31.7067 25.3463 26.519 24.1736 28.0019 29.2067 31.8233 25.3854 26.5901 24.1806 27.9901 28.9563 31.7918 25.1546 26.1208 24.1884 27.9713 25.3151 24.1431 29.1434 26.4871 31.7996 28.0521 25.5965 24.0961 29.5525 27.097 32.0081 27.9812 25.308 24.1414 29.1479 26.4747 31.8211 7.16666 8.05143 10.2038 11.0885 8.93619 13.2408 7.37113 8.25203 10.3507 11.2317 9.13293 13.3304 7.42348 8.29899 10.3421 11.2177 9.1745 13.2608 13.3266 11.2205 10.3308 8.22478 9.11447 7.33509 21.8727 21.3439 23.5999 23.0711 20.815 25.3271 21.7647 21.2456 23.5774 23.0583 20.7265 25.3901 21.8274 21.2821 23.5979 23.0526 20.7367 25.3684 13.2012 11.1548 10.2602 8.21387 9.10847 7.31927 13.3645 11.2139 10.375 8.2245 9.06337 7.38562 25.3278 23.013 23.8541 21.5393 20.6982 22.3805 25.3561 22.9895 23.8172 21.4507 20.623 22.2783 25.3263 23.0143 23.8476 21.5356 20.7024 22.3688 20.2578 13.4517 11.4475 13.0247 21.835 22.262 14.6019 15.456 29.0681 20.2781 13.5028 11.4133 13.0448 21.9096 22.3676 14.6762 15.5922 29.143 20.2363 13.48 11.3938 13.0404 21.8829 22.3224 14.687 15.5661 29.0787 20.3107 22.3613 29.2141 22.0436 13.1402 13.4579 14.8731 15.5086 11.4073 20.3649 22.4072 29.2965 22.1049 13.1732 13.4756 14.9132 15.5179 11.4332 20.0344 22.101 28.7052 21.8567 13.186 13.4302 15.0082 15.4967 11.3637 15.0105 13.8713 12.9477 11.8086 12.7322 10.885 15.0122 13.8739 12.953 11.8147 12.7355 10.8939 15.0129 13.8737 12.9524 11.8132 12.7346 10.8919 7.96781 8.07799 5.64303 5.04 7.36478 10.4028 4.43697 10.5129 10.2926 8.01976 8.08288 5.71813 5.00042 7.30204 10.3845 4.2827 10.4476 10.3214 15.6523 13.5359 17.7909 13.7498 11.6111 11.3972 9.70856 9.2808 13.5137 8.00414 8.09721 5.68744 5.03594 7.35264 10.4139 4.38445 10.507 10.3208 15.6011 13.5077 17.7843 13.7284 11.5452 11.3246 9.67241 9.23116 13.418 15.5816 13.4715 17.6894 13.6796 11.5718 11.3637 9.66977 9.25352 13.4739 8.0109 10.4246 10.3227 7.35226 5.04044 8.11277 4.3818 10.5265 5.69908 15.6254 11.317 13.4492 11.5887 13.7649 13.4932 9.72831 9.18481 17.8016 15.653 11.4752 13.5458 11.5952 13.7023 13.5823 9.64454 9.40455 17.7601 7.93567 10.395 10.2499 7.36336 5.04916 8.08081 4.47685 10.5402 5.62147 7.98584 10.4184 10.3078 7.36245 5.04046 8.09643 4.41707 10.529 5.66385 15.6157 11.2949 13.505 11.6144 13.725 13.4056 9.72369 9.0848 17.7264 25.0199 18.7266 18.1242 11.8309 12.4334 11.2285 24.6209 18.5537 17.8667 11.7996 12.4866 11.1125 26.0803 19.5485 18.9449 12.4131 13.0166 11.8095 11.1867 12.0421 17.6963 18.5517 12.8975 24.2058 11.2915 12.121 17.7392 18.5686 12.9505 24.1868 10.9121 11.5897 17.2621 17.9397 12.2673 23.612 10.9244 10.6442 11.0284 8.8446 8.74056 10.5402 6.66078 10.26 10.8203 16.4854 15.7803 17.7523 14.5134 13.8083 15.2185 16.49 15.7745 17.7566 14.5079 13.7925 15.2234 10.9537 10.5599 10.8162 8.71602 8.85354 10.6974 6.61584 10.3036 11.0912 16.4919 15.7872 17.7626 14.5165 13.8118 15.2212 8.18313 10.8987 7.58773 10.3033 13.6144 6.99232 6.98832 10.3225 7.59531 10.9294 13.6566 8.20229 6.94593 10.3347 7.59202 10.9808 13.7235 8.23812 8.0137 10.7976 7.42942 10.2133 13.5815 6.84515 6.86661 10.1645 7.61233 10.9102 13.4624 8.35806 18.2577 16.316 18.3124 16.3707 14.3743 18.3672 18.6616 16.5319 18.5158 16.3861 14.4021 18.3701 18.368 16.333 18.4659 16.4309 14.298 18.5638 18.7098 16.5313 18.5175 16.339 14.3528 18.3252 8.16641 10.9862 7.5617 10.3815 13.806 6.95699 18.3045 16.2571 18.4744 16.427 14.2098 18.6443 18.1667 16.308 18.2095 16.3507 14.4493 18.2522 6.51658 4.80889 5.91024 4.20255 3.10119 5.3039 6.54773 5.61083 8.59873 7.66183 4.67394 10.6497 10.974 10.6089 10.8942 8.82023 8.90005 10.6888 6.74627 10.3237 11.0538 10.9503 10.6681 11.018 8.90384 8.83609 10.6004 6.78963 10.3182 10.8826 4.9308 5.7509 7.78178 8.60188 6.571 10.6328 10.91 10.5527 10.8007 8.66075 8.77007 10.6621 6.52081 10.3048 11.0193 6.16125 9.22754 5.99855 9.06485 12.2938 5.83586 6.17023 9.23987 6.00267 9.07231 12.3095 5.83511 6.15221 9.21152 5.98662 9.04593 12.2708 5.82103 5.83729 9.09086 6.0481 9.30167 12.3444 6.25891 5.84624 9.05649 6.06301 9.27326 12.2667 6.27978 5.83009 9.04329 6.04638 9.25958 12.2565 6.26266 10.1601 11.2009 11.3358 12.3766 12.2417 12.5114 12.5844 12.3344 11.2968 11.0468 12.0845 10.0092 10.177 11.1438 11.3123 12.2791 12.1105 12.4476 10.2813 11.2718 11.2239 12.2144 12.2623 12.1665 12.3779 12.3014 11.3088 11.2324 12.225 10.2398 12.4303 12.3193 11.3191 11.2081 12.2084 10.2078 10.9441 10.6573 10.9532 8.775 8.76593 10.6482 6.5968 10.3614 10.9351 3.06401 4.81538 3.56299 5.31436 6.56676 4.06196 20.631 17.4463 22.2794 21.9101 20.2617 15.7979 21.5409 12.6132 18.9826 20.6129 17.4206 22.259 21.8917 20.2456 15.7745 21.5244 12.5822 18.9668 20.6003 17.3901 22.2404 21.8799 20.2398 15.7499 21.5194 12.5398 18.9601 20.6864 15.8191 19.0442 20.3054 21.9476 17.4612 21.5666 12.5939 22.3286 20.6841 15.834 19.0328 20.2885 21.9398 17.4854 21.5443 12.6353 22.3354 20.6789 15.8141 19.0383 20.3052 21.9459 17.4547 21.5722 12.5899 22.3195 5.10463 5.90873 7.95662 8.76073 6.71284 10.8086 17.7269 15.7934 15.6433 13.7098 13.8599 13.5598 17.9144 15.8085 15.7511 13.6452 13.7025 13.5878 13.7171 13.7721 15.8578 15.9128 13.8271 17.9985 13.7377 13.8573 15.8956 16.0152 13.9769 18.0535 8.54196 7.75334 6.1787 5.39008 6.96471 3.81545 17.3268 15.5178 15.2025 13.3935 13.7088 13.0782 14.0636 13.9239 16.0655 15.9257 13.7841 18.0673 3.95021 5.54427 6.34185 7.93592 7.13834 8.73349 8.74697 7.96832 6.31303 5.53437 7.18966 3.87909 8.79584 8.01703 6.39274 5.61393 7.23822 3.98964 3.86248 5.49518 6.28541 7.91812 7.12789 8.70835 3.8371 5.51777 6.22621 7.90689 7.19845 8.61532 6.65918 5.58566 8.6363 7.56278 4.51215 10.6134 4.50571 5.55959 7.57097 8.62485 6.61348 10.6362 14.3548 13.4614 13.9114 13.018 12.568 13.4681 6.4883 4.7071 5.64399 3.86279 2.92589 4.79968 5.77869 9.25759 7.69592 11.1748 12.7365 9.61315 8.65999 10.9641 11.0348 8.5893 10.8934 6.28518 5.76773 9.25804 7.72237 11.2127 12.7483 9.67701 5.79244 9.22459 7.67386 11.106 12.6567 9.55528 9.67641 11.2097 7.74493 9.2782 12.743 5.81345 9.60162 11.1196 7.72491 9.24286 12.6375 5.8482 9.59616 11.1148 7.71273 9.23137 12.6335 5.82929 5.44495 6.51051 5.35803 6.42359 7.57607 5.27111 5.36486 6.51806 5.30362 6.45682 7.67126 5.24238 10.9771 10.6308 10.8979 8.69671 8.77587 10.71 6.49549 10.3637 11.0562 10.9179 10.6543 10.9799 8.74316 8.68117 10.5923 6.50639 10.3286 10.8559 3.19078 2.75285 4.92856 4.49063 2.31492 6.66634 6.65588 4.49164 4.97845 2.8142 2.32739 3.30102 2.83579 2.5238 4.74898 4.43699 2.21181 6.66218 2.87541 2.53296 4.77557 4.43312 2.1905 6.67573 6.694 4.4776 4.86544 2.64904 2.2612 3.03688 6.67932 4.44874 4.7323 2.50172 2.21815 2.78528 2.82368 4.7927 4.00784 5.97685 6.76171 5.19199 14.4071 13.281 13.9499 12.8238 12.1549 13.4927 14.3961 13.286 13.947 12.8369 12.1759 13.4979 13.5202 12.9249 13.8927 13.2975 12.3297 14.2652 12.3694 11.6845 11.9748 11.2899 10.9996 11.5802 12.239 11.9918 12.0035 11.7562 11.7445 11.7679 12.4263 11.7096 11.9977 11.2809 10.9928 11.569 12.8063 12.5208 12.6127 12.3271 12.2352 12.4191 12.7033 11.7693 12.1693 11.2353 10.8353 11.6353 12.1942 12.0199 11.9977 11.8234 11.8455 11.8013 20.9406 19.3793 20.1273 18.566 17.818 19.3139 20.9793 19.3927 20.1322 18.5457 17.8061 19.2852 20.9099 19.3432 20.094 18.5273 17.7765 19.2781 6.56187 5.86936 8.66424 7.97172 5.17684 10.7666 5.09242 4.03341 5.84929 4.79028 2.97439 6.60616 6.70976 4.68632 5.75327 3.72983 2.66287 4.79679 6.61929 5.64104 4.74763 3.76939 4.6628 2.87598 12.6757 11.7205 11.7248 10.7696 10.7653 10.7738 12.6794 11.7162 11.73 10.7668 10.7529 10.7806 12.6786 11.7283 11.7293 10.7791 10.778 10.7801 10.8219 11.5601 12.9656 13.7037 12.2982 15.1092 10.8259 11.5665 12.9764 13.7171 12.3071 15.127 10.7934 11.541 12.9565 13.7041 12.2885 15.1197 26.3359 18.0579 18.9007 10.6227 9.77995 11.4655 26.9136 18.2335 18.9955 10.3153 9.55336 11.0773 11.2517 10.4459 18.9908 18.185 9.64011 26.7299 11.2493 10.4024 18.9765 18.1296 9.55553 26.7037 26.6198 18.5515 19.1488 11.0806 10.4833 11.6779 11.2035 10.3401 19.1657 18.3023 9.47675 27.1279 7.68865 12.2482 8.41387 7.59883 6.8736 11.523 6.78378 16.0825 6.96342 7.67573 12.2418 8.40323 7.57058 6.84307 11.5143 6.73792 16.0805 6.94823 7.6898 11.5118 6.95884 6.80642 7.53738 12.2427 6.65399 16.0647 8.42076 7.69005 11.5514 6.99212 6.95415 7.65208 12.2494 6.91618 16.1107 8.38798 7.73779 12.3503 8.48283 7.66399 6.91894 11.6052 6.84515 16.2177 6.99274 7.6881 11.5517 6.95807 6.88359 7.61362 12.2818 6.80911 16.1454 8.41813 11.5239 12.1749 11.8097 12.4607 12.8259 12.0954 12.1523 12.5381 11.8826 12.2683 12.9238 11.6129 12.2164 12.4731 11.8668 12.1236 12.7299 11.5172 11.587 12.1696 11.923 12.5056 12.7522 12.259 11.6143 12.2129 11.8894 12.4881 12.8116 12.1646 12.2823 12.477 11.9734 12.1681 12.6717 11.6644 17.0337 15.1002 16.2993 16.8147 17.5491 15.8346 17.3301 13.901 17.7682 17.0524 15.9082 17.7943 17.5935 16.8516 15.1664 17.3926 14.0222 16.3106 17.0952 16.0378 17.8599 17.5782 16.8134 15.273 17.2964 14.2156 16.3304 16.9013 15.4779 17.6619 17.4139 16.6534 14.7173 17.166 13.2939 16.1407 16.7408 14.7468 16.1514 16.675 17.2644 15.3363 17.1987 13.3423 17.3302 16.7536 14.8685 16.2115 16.7037 17.2459 15.4107 17.196 13.5256 17.2958 12.0101 13.0198 9.92126 10.931 14.0296 7.83246 11.9325 13.0065 9.88046 10.9545 14.0806 7.82844 12.2008 12.9394 10.0181 10.7567 13.678 7.83548 4.17145 6.15803 7.20602 9.1926 8.14462 10.2406 4.24375 6.1873 7.252 9.19555 8.13085 10.2603 4.20049 6.10909 7.14172 9.05032 8.01768 10.0829 10.1911 9.09907 7.1308 6.03877 8.00704 4.0705 10.1236 9.02382 7.07379 5.97404 7.92408 4.02401 10.1978 9.28259 7.31306 6.39785 8.36739 4.42832 7.63531 10.3228 9.98014 12.6676 13.0103 12.325 7.73235 10.4654 9.96715 12.7002 13.1985 12.2019 7.74747 10.48 9.9622 12.6947 13.2125 12.1769 26.811 26.888 24.8243 24.9013 26.9651 22.8375 26.905 26.9207 24.6204 24.6361 26.9364 22.3357 22.1572 24.2173 24.3335 26.3936 26.2773 26.5098 22.7818 24.5688 24.6619 26.4489 26.3558 26.542 26.8936 27.1364 24.453 24.6959 27.3793 22.0125 21.8286 24.1145 24.2241 26.5101 26.4005 26.6196 2.28527 2.55987 2.31743 2.59203 2.83447 2.34959 2.28987 2.61939 2.28649 2.616 2.9489 2.2831 2.18451 2.46 2.18459 2.46007 2.73548 2.18467 2.15845 2.48197 2.16219 2.48572 2.8055 2.16594 12.9762 12.7305 11.5386 11.2929 12.4847 10.101 2.30535 2.53286 2.2676 2.49512 2.76038 2.22985 2.23247 2.46557 2.21038 2.44348 2.69867 2.18829 12.9832 12.655 11.593 11.2648 12.3268 10.2028 12.8522 12.7002 11.4091 11.2571 12.5481 9.96605 10.2419 11.2836 11.6094 12.6512 12.3254 12.977 10.0617 11.2259 11.4537 12.6179 12.3902 12.8456 10.0413 11.2153 11.4387 12.6127 12.3893 12.8361 13.4936 13.0438 13.9124 13.4627 12.5941 14.3313 13.4495 13.0351 13.9351 13.5206 12.6206 14.4206 19.5328 16.5774 16.4603 13.5049 13.622 13.3878 19.7201 16.6498 16.4489 13.3786 13.5795 13.1777 20.2006 16.9791 16.7647 13.5433 13.7577 13.3289 13.4441 13.5807 16.956 17.0927 13.7174 20.4679 13.5106 13.6654 17.1096 17.2645 13.8203 20.7086 13.3734 13.5629 16.9242 17.1136 13.7523 20.4749 13.0562 10.967 11.0169 12.1236 14.1629 13.0063 13.2303 10.9172 15.0955 13.0527 14.158 15.0919 13.0018 10.9626 12.1188 10.9117 13.224 11.0136 13.059 14.1597 15.0907 13.01 10.9782 12.128 10.9292 13.2287 11.0272 11.6625 11.7739 11.9046 12.016 11.8853 12.1467 12.0086 12.0145 12.6771 12.683 12.0204 13.3457 12.01 12.0146 12.6967 12.7014 12.0193 13.3835 21.7854 22.5467 28.2032 19.977 13.5593 16.129 11.7509 16.8902 15.3677 21.9047 23.2204 28.5593 20.0215 13.367 16.5658 11.4838 17.8814 15.2502 21.4797 16.246 14.5736 13.0891 19.9952 23.1521 11.6046 17.9184 28.3858 21.3749 16.1242 14.3973 13.0488 20.0265 23.1018 11.7004 17.851 28.3526 21.4137 16.1374 14.4851 13.143 20.0716 23.066 11.8008 17.7897 28.3423 21.8995 23.2759 28.641 20.178 13.4365 16.5343 11.715 17.9108 15.1579 17.1447 15.294 18.9373 18.4052 16.6126 13.5014 17.8731 11.6506 15.3521 17.127 15.2825 18.9187 18.3803 16.5886 13.4908 17.8419 11.6463 15.3354 17.132 16.6026 15.3375 13.4877 15.2821 18.3971 11.6378 17.8678 18.9265 19.4929 15.8847 16.6153 13.007 12.2765 13.7376 19.2057 15.8206 16.2447 12.8596 12.4355 13.2837 19.1993 15.8168 16.3282 12.9457 12.4343 13.4571 14.3773 13.3353 16.9834 15.9414 12.2934 19.5